 VARIABLES= "X", "Y", "Z", "CP", "M"
 ZONE F=POINT, I=          61  J=          31  T="P.G.BODY"
# BODY PANEL GRID         
  0.000000E+00  0.000000E+00  0.000000E+00  0.119295E+01  0.000000E+00
  0.105625E+01 -0.892154E+00  0.746239E-07  0.238242E+00  0.000000E+00
  0.211250E+01 -0.122595E+01  0.112781E-06  0.174953E+00  0.000000E+00
  0.316876E+01 -0.153775E+01  0.141986E-06  0.972353E-01  0.000000E+00
  0.422501E+01 -0.180709E+01  0.165151E-06  0.174822E-01  0.000000E+00
  0.528126E+01 -0.205086E+01  0.186168E-06 -0.792071E-01  0.000000E+00
  0.633751E+01 -0.225458E+01  0.204297E-06 -0.181084E+00  0.000000E+00
  0.739376E+01 -0.240022E+01  0.218357E-06 -0.232175E+00  0.000000E+00
  0.845001E+01 -0.248207E+01  0.227940E-06 -0.216434E+00  0.000000E+00
  0.950627E+01 -0.251184E+01  0.232838E-06 -0.160980E+00  0.000000E+00
  0.105625E+02 -0.251667E+01  0.233979E-06 -0.117389E+00  0.000000E+00
  0.116188E+02 -0.252015E+01  0.233960E-06 -0.787241E-01  0.000000E+00
  0.126750E+02 -0.252044E+01  0.233946E-06 -0.483026E-01  0.000000E+00
  0.137313E+02 -0.252023E+01  0.233956E-06 -0.242366E-01  0.000000E+00
  0.147875E+02 -0.252034E+01  0.233951E-06 -0.133224E-02  0.000000E+00
  0.158438E+02 -0.252024E+01  0.233957E-06  0.242711E-01  0.000000E+00
  0.169000E+02 -0.252043E+01  0.233944E-06  0.565681E-01  0.000000E+00
  0.179563E+02 -0.252183E+01  0.233916E-06  0.930389E-01  0.000000E+00
  0.190125E+02 -0.252172E+01  0.233925E-06  0.134662E+00  0.000000E+00
  0.200688E+02 -0.251764E+01  0.233849E-06  0.178894E+00  0.000000E+00
  0.211250E+02 -0.254642E+01  0.233872E-06  0.128210E+00  0.000000E+00
  0.221813E+02 -0.259933E+01  0.233955E-06  0.142880E-01  0.000000E+00
  0.232375E+02 -0.262531E+01  0.233905E-06 -0.150008E-01  0.000000E+00
  0.242938E+02 -0.262101E+01  0.233803E-06  0.228755E-01  0.000000E+00
  0.253500E+02 -0.262204E+01  0.233820E-06  0.362731E-02  0.000000E+00
  0.264063E+02 -0.262201E+01  0.233825E-06 -0.292926E-01  0.000000E+00
  0.274625E+02 -0.262198E+01  0.233824E-06 -0.669592E-01  0.000000E+00
  0.285188E+02 -0.262201E+01  0.233825E-06 -0.936519E-01  0.000000E+00
  0.295750E+02 -0.262200E+01  0.233824E-06 -0.971877E-01  0.000000E+00
  0.306313E+02 -0.262200E+01  0.233825E-06 -0.799915E-01  0.000000E+00
  0.316875E+02 -0.262199E+01  0.233823E-06 -0.495991E-01  0.000000E+00
  0.327438E+02 -0.262201E+01  0.233827E-06 -0.167621E-01  0.000000E+00
  0.338001E+02 -0.262256E+01  0.233868E-06  0.497836E-02  0.000000E+00
  0.348563E+02 -0.262368E+01  0.233932E-06 -0.429898E-02  0.000000E+00
  0.359126E+02 -0.261865E+01  0.233928E-06 -0.325462E-01  0.000000E+00
  0.369688E+02 -0.259495E+01  0.233932E-06 -0.861580E-02  0.000000E+00
  0.380251E+02 -0.254815E+01  0.233880E-06  0.744519E-01  0.000000E+00
  0.390813E+02 -0.251575E+01  0.233844E-06  0.101441E+00  0.000000E+00
  0.401376E+02 -0.252077E+01  0.233941E-06  0.758190E-01  0.000000E+00
  0.411938E+02 -0.252033E+01  0.233953E-06  0.261943E-01  0.000000E+00
  0.422501E+02 -0.252002E+01  0.233940E-06 -0.404549E-01  0.000000E+00
  0.433063E+02 -0.251974E+01  0.233910E-06 -0.100854E+00  0.000000E+00
  0.443626E+02 -0.251300E+01  0.233637E-06 -0.122661E+00  0.000000E+00
  0.454188E+02 -0.247862E+01  0.232542E-06 -0.144469E+00  0.000000E+00
  0.464751E+02 -0.238060E+01  0.229304E-06 -0.129559E+00  0.000000E+00
  0.475313E+02 -0.221751E+01  0.223396E-06 -0.946109E-01  0.000000E+00
  0.485876E+02 -0.203457E+01  0.216032E-06 -0.596624E-01  0.000000E+00
  0.496438E+02 -0.183150E+01  0.207163E-06 -0.251631E-01  0.000000E+00
  0.507001E+02 -0.161320E+01  0.196824E-06  0.870415E-02  0.000000E+00
  0.517563E+02 -0.138618E+01  0.185217E-06  0.425711E-01  0.000000E+00
  0.528126E+02 -0.114334E+01  0.171153E-06  0.764383E-01  0.000000E+00
  0.538688E+02 -0.833051E+00  0.151908E-06  0.106465E+00  0.000000E+00
  0.549251E+02 -0.512693E+00  0.133285E-06  0.124033E+00  0.000000E+00
  0.559813E+02 -0.316151E+00  0.124112E-06  0.141601E+00  0.000000E+00
  0.570376E+02 -0.266685E-01  0.108114E-06  0.159169E+00  0.000000E+00
  0.580938E+02  0.233920E+00  0.938675E-07  0.176737E+00  0.000000E+00
  0.591501E+02  0.512026E+00  0.781299E-07  0.176765E+00  0.000000E+00
  0.602063E+02  0.842469E+00  0.580698E-07  0.166037E+00  0.000000E+00
  0.612626E+02  0.122357E+01  0.355648E-07  0.155309E+00  0.000000E+00
  0.623188E+02  0.131587E+01  0.302719E-07  0.144582E+00  0.000000E+00
  0.633751E+02  0.131587E+01  0.302719E-07  0.133823E+00  0.000000E+00
  0.000000E+00  0.000000E+00  0.000000E+00  0.119295E+01  0.000000E+00
  0.105625E+01 -0.888194E+00  0.103471E+00  0.237420E+00  0.000000E+00
  0.211250E+01 -0.122005E+01  0.156388E+00  0.170854E+00  0.000000E+00
  0.316876E+01 -0.152975E+01  0.196825E+00  0.930274E-01  0.000000E+00
  0.422501E+01 -0.179747E+01  0.228903E+00  0.149129E-01  0.000000E+00
  0.528126E+01 -0.203970E+01  0.258001E+00 -0.826798E-01  0.000000E+00
  0.633751E+01 -0.224179E+01  0.283067E+00 -0.187218E+00  0.000000E+00
  0.739376E+01 -0.238580E+01  0.302469E+00 -0.240252E+00  0.000000E+00
  0.845001E+01 -0.246624E+01  0.315662E+00 -0.220889E+00  0.000000E+00
  0.950627E+01 -0.249511E+01  0.322386E+00 -0.161530E+00  0.000000E+00
  0.105625E+02 -0.249968E+01  0.323948E+00 -0.114785E+00  0.000000E+00
  0.116188E+02 -0.250317E+01  0.323922E+00 -0.754662E-01  0.000000E+00
  0.126750E+02 -0.250347E+01  0.323904E+00 -0.474391E-01  0.000000E+00
  0.137313E+02 -0.250325E+01  0.323917E+00 -0.233873E-01  0.000000E+00
  0.147875E+02 -0.250336E+01  0.323910E+00 -0.638979E-03  0.000000E+00
  0.158438E+02 -0.250327E+01  0.323919E+00  0.249493E-01  0.000000E+00
  0.169000E+02 -0.250255E+01  0.323804E+00  0.573632E-01  0.000000E+00
  0.179563E+02 -0.250097E+01  0.323454E+00  0.943655E-01  0.000000E+00
  0.190125E+02 -0.250146E+01  0.323530E+00  0.135953E+00  0.000000E+00
  0.200688E+02 -0.249781E+01  0.323468E+00  0.177865E+00  0.000000E+00
  0.211250E+02 -0.253789E+01  0.324688E+00  0.132204E+00  0.000000E+00
  0.221813E+02 -0.259782E+01  0.325541E+00  0.150779E-01  0.000000E+00
  0.232375E+02 -0.262516E+01  0.325616E+00 -0.201746E-01  0.000000E+00
  0.242938E+02 -0.262101E+01  0.325490E+00  0.213767E-01  0.000000E+00
  0.253500E+02 -0.262204E+01  0.325512E+00  0.377206E-02  0.000000E+00
  0.264063E+02 -0.262201E+01  0.325519E+00 -0.300022E-01  0.000000E+00
  0.274625E+02 -0.262198E+01  0.325518E+00 -0.679839E-01  0.000000E+00
  0.285188E+02 -0.262201E+01  0.325519E+00 -0.944992E-01  0.000000E+00
  0.295750E+02 -0.262200E+01  0.325518E+00 -0.979851E-01  0.000000E+00
  0.306313E+02 -0.262200E+01  0.325519E+00 -0.805222E-01  0.000000E+00
  0.316875E+02 -0.262199E+01  0.325517E+00 -0.497593E-01  0.000000E+00
  0.327438E+02 -0.262201E+01  0.325522E+00 -0.166550E-01  0.000000E+00
  0.338001E+02 -0.262256E+01  0.325578E+00  0.518222E-02  0.000000E+00
  0.348563E+02 -0.262365E+01  0.325665E+00 -0.429448E-02  0.000000E+00
  0.359126E+02 -0.261867E+01  0.325664E+00 -0.332083E-01  0.000000E+00
  0.369688E+02 -0.259475E+01  0.325647E+00 -0.105331E-01  0.000000E+00
  0.380251E+02 -0.253962E+01  0.324700E+00  0.738045E-01  0.000000E+00
  0.390813E+02 -0.249632E+01  0.323503E+00  0.102686E+00  0.000000E+00
  0.401376E+02 -0.250380E+01  0.323896E+00  0.777402E-01  0.000000E+00
  0.411938E+02 -0.250336E+01  0.323913E+00  0.277164E-01  0.000000E+00
  0.422501E+02 -0.250301E+01  0.323891E+00 -0.394531E-01  0.000000E+00
  0.433063E+02 -0.250297E+01  0.323874E+00 -0.100329E+00  0.000000E+00
  0.443626E+02 -0.249372E+01  0.323232E+00 -0.122226E+00  0.000000E+00
  0.454188E+02 -0.246040E+01  0.321818E+00 -0.144131E+00  0.000000E+00
  0.464751E+02 -0.236617E+01  0.317708E+00 -0.129286E+00  0.000000E+00
  0.475313E+02 -0.220176E+01  0.309345E+00 -0.944019E-01  0.000000E+00
  0.485876E+02 -0.201879E+01  0.299090E+00 -0.595540E-01  0.000000E+00
  0.496438E+02 -0.181662E+01  0.286837E+00 -0.251853E-01  0.000000E+00
  0.507001E+02 -0.159893E+01  0.272508E+00  0.857733E-02  0.000000E+00
  0.517563E+02 -0.137260E+01  0.256423E+00  0.423473E-01  0.000000E+00
  0.528126E+02 -0.113069E+01  0.236942E+00  0.761106E-01  0.000000E+00
  0.538688E+02 -0.821768E+00  0.210293E+00  0.106031E+00  0.000000E+00
  0.549251E+02 -0.502863E+00  0.184519E+00  0.123488E+00  0.000000E+00
  0.559813E+02 -0.307375E+00  0.171859E+00  0.140954E+00  0.000000E+00
  0.570376E+02 -0.197300E-01  0.149782E+00  0.158429E+00  0.000000E+00
  0.580938E+02  0.239123E+00  0.130131E+00  0.175922E+00  0.000000E+00
  0.591501E+02  0.515607E+00  0.108392E+00  0.175759E+00  0.000000E+00
  0.602063E+02  0.844772E+00  0.805998E-01  0.164751E+00  0.000000E+00
  0.612626E+02  0.122597E+01  0.492595E-01  0.153733E+00  0.000000E+00
  0.623188E+02  0.131869E+01  0.418472E-01  0.142703E+00  0.000000E+00
  0.633751E+02  0.131869E+01  0.418472E-01  0.131633E+00  0.000000E+00
  0.000000E+00  0.000000E+00  0.000000E+00  0.119295E+01  0.000000E+00
  0.105625E+01 -0.875427E+00  0.206540E+00  0.235644E+00  0.000000E+00
  0.211250E+01 -0.120086E+01  0.312191E+00  0.167584E+00  0.000000E+00
  0.316876E+01 -0.150407E+01  0.392589E+00  0.869154E-01  0.000000E+00
  0.422501E+01 -0.176684E+01  0.456410E+00  0.116640E-01  0.000000E+00
  0.528126E+01 -0.200455E+01  0.514294E+00 -0.896177E-01  0.000000E+00
  0.633751E+01 -0.220202E+01  0.564005E+00 -0.196572E+00  0.000000E+00
  0.739376E+01 -0.234163E+01  0.602308E+00 -0.250595E+00  0.000000E+00
  0.845001E+01 -0.241841E+01  0.628212E+00 -0.220205E+00  0.000000E+00
  0.950627E+01 -0.244500E+01  0.641321E+00 -0.161188E+00  0.000000E+00
  0.105625E+02 -0.244887E+01  0.644333E+00 -0.109655E+00  0.000000E+00
  0.116188E+02 -0.245242E+01  0.644294E+00 -0.731884E-01  0.000000E+00
  0.126750E+02 -0.245273E+01  0.644259E+00 -0.463066E-01  0.000000E+00
  0.137313E+02 -0.245251E+01  0.644286E+00 -0.227028E-01  0.000000E+00
  0.147875E+02 -0.245262E+01  0.644270E+00 -0.599711E-03  0.000000E+00
  0.158438E+02 -0.245252E+01  0.644288E+00  0.246725E-01  0.000000E+00
  0.169000E+02 -0.245189E+01  0.644075E+00  0.594559E-01  0.000000E+00
  0.179563E+02 -0.245060E+01  0.643425E+00  0.999447E-01  0.000000E+00
  0.190125E+02 -0.245102E+01  0.643566E+00  0.140460E+00  0.000000E+00
  0.200688E+02 -0.244791E+01  0.643556E+00  0.181618E+00  0.000000E+00
  0.211250E+02 -0.251316E+01  0.651372E+00  0.137578E+00  0.000000E+00
  0.221813E+02 -0.259138E+01  0.656986E+00  0.132874E-01  0.000000E+00
  0.232375E+02 -0.262442E+01  0.658349E+00 -0.233481E-01  0.000000E+00
  0.242938E+02 -0.262103E+01  0.658253E+00  0.219705E-01  0.000000E+00
  0.253500E+02 -0.262204E+01  0.658295E+00  0.383886E-02  0.000000E+00
  0.264063E+02 -0.262202E+01  0.658310E+00 -0.312417E-01  0.000000E+00
  0.274625E+02 -0.262198E+01  0.658309E+00 -0.706128E-01  0.000000E+00
  0.285188E+02 -0.262201E+01  0.658310E+00 -0.971433E-01  0.000000E+00
  0.295750E+02 -0.262200E+01  0.658309E+00 -0.100480E+00  0.000000E+00
  0.306313E+02 -0.262200E+01  0.658311E+00 -0.823402E-01  0.000000E+00
  0.316875E+02 -0.262200E+01  0.658306E+00 -0.506812E-01  0.000000E+00
  0.327438E+02 -0.262201E+01  0.658316E+00 -0.166938E-01  0.000000E+00
  0.338001E+02 -0.262255E+01  0.658430E+00  0.547394E-02  0.000000E+00
  0.348563E+02 -0.262365E+01  0.658606E+00 -0.459645E-02  0.000000E+00
  0.359126E+02 -0.261932E+01  0.658741E+00 -0.349327E-01  0.000000E+00
  0.369688E+02 -0.259043E+01  0.657651E+00 -0.136898E-01  0.000000E+00
  0.380251E+02 -0.252035E+01  0.652558E+00  0.724685E-01  0.000000E+00
  0.390813E+02 -0.245735E+01  0.645951E+00  0.105030E+00  0.000000E+00
  0.401376E+02 -0.245307E+01  0.644245E+00  0.823226E-01  0.000000E+00
  0.411938E+02 -0.245262E+01  0.644278E+00  0.322581E-01  0.000000E+00
  0.422501E+02 -0.245229E+01  0.644238E+00 -0.366213E-01  0.000000E+00
  0.433063E+02 -0.245247E+01  0.644249E+00 -0.990754E-01  0.000000E+00
  0.443626E+02 -0.244202E+01  0.642696E+00 -0.121403E+00  0.000000E+00
  0.454188E+02 -0.240564E+01  0.639186E+00 -0.143784E+00  0.000000E+00
  0.464751E+02 -0.231160E+01  0.630917E+00 -0.129315E+00  0.000000E+00
  0.475313E+02 -0.215507E+01  0.615677E+00 -0.947927E-01  0.000000E+00
  0.485876E+02 -0.197275E+01  0.595076E+00 -0.604109E-01  0.000000E+00
  0.496438E+02 -0.177257E+01  0.570721E+00 -0.263806E-01  0.000000E+00
  0.507001E+02 -0.155677E+01  0.542141E+00  0.731057E-02  0.000000E+00
  0.517563E+02 -0.133253E+01  0.510057E+00  0.409969E-01  0.000000E+00
  0.528126E+02 -0.109345E+01  0.471260E+00  0.746750E-01  0.000000E+00
  0.538688E+02 -0.788805E+00  0.418278E+00  0.104556E+00  0.000000E+00
  0.549251E+02 -0.474473E+00  0.367126E+00  0.122184E+00  0.000000E+00
  0.559813E+02 -0.282190E+00  0.342205E+00  0.139871E+00  0.000000E+00
  0.570376E+02  0.499487E-03  0.298610E+00  0.157629E+00  0.000000E+00
  0.580938E+02  0.254918E+00  0.259811E+00  0.175475E+00  0.000000E+00
  0.591501E+02  0.527273E+00  0.216726E+00  0.174806E+00  0.000000E+00
  0.602063E+02  0.853109E+00  0.161228E+00  0.162696E+00  0.000000E+00
  0.612626E+02  0.123504E+01  0.976917E-01  0.150521E+00  0.000000E+00
  0.623188E+02  0.132915E+01  0.824059E-01  0.138284E+00  0.000000E+00
  0.633751E+02  0.132915E+01  0.824059E-01  0.125968E+00  0.000000E+00
  0.000000E+00  0.000000E+00  0.000000E+00  0.119295E+01  0.000000E+00
  0.105625E+01 -0.852453E+00  0.308259E+00  0.233043E+00  0.000000E+00
  0.211250E+01 -0.116607E+01  0.465919E+00  0.162437E+00  0.000000E+00
  0.316876E+01 -0.145815E+01  0.585200E+00  0.809465E-01  0.000000E+00
  0.422501E+01 -0.171266E+01  0.680076E+00  0.444352E-02  0.000000E+00
  0.528126E+01 -0.194311E+01  0.766202E+00 -0.100722E+00  0.000000E+00
  0.633751E+01 -0.213353E+01  0.839900E+00 -0.205587E+00  0.000000E+00
  0.739376E+01 -0.226673E+01  0.896366E+00 -0.244689E+00  0.000000E+00
  0.845001E+01 -0.233836E+01  0.934289E+00 -0.218390E+00  0.000000E+00
  0.950627E+01 -0.236181E+01  0.953313E+00 -0.160633E+00  0.000000E+00
  0.105625E+02 -0.236482E+01  0.957635E+00 -0.107163E+00  0.000000E+00
  0.116188E+02 -0.236846E+01  0.957605E+00 -0.731469E-01  0.000000E+00
  0.126750E+02 -0.236878E+01  0.957555E+00 -0.448939E-01  0.000000E+00
  0.137313E+02 -0.236856E+01  0.957594E+00 -0.222164E-01  0.000000E+00
  0.147875E+02 -0.236867E+01  0.957571E+00 -0.100881E-02  0.000000E+00
  0.158438E+02 -0.236857E+01  0.957598E+00  0.251223E-01  0.000000E+00
  0.169000E+02 -0.236796E+01  0.957281E+00  0.634704E-01  0.000000E+00
  0.179563E+02 -0.236676E+01  0.956316E+00  0.107118E+00  0.000000E+00
  0.190125E+02 -0.236718E+01  0.956529E+00  0.147020E+00  0.000000E+00
  0.200688E+02 -0.237829E+01  0.961138E+00  0.184925E+00  0.000000E+00
  0.211250E+02 -0.247434E+01  0.983092E+00  0.149133E+00  0.000000E+00
  0.221813E+02 -0.257786E+01  0.999894E+00  0.169083E-01  0.000000E+00
  0.232375E+02 -0.262255E+01  0.100576E+01 -0.260736E-01  0.000000E+00
  0.242938E+02 -0.262104E+01  0.100623E+01  0.182596E-01  0.000000E+00
  0.253500E+02 -0.262204E+01  0.100629E+01  0.428524E-02  0.000000E+00
  0.264063E+02 -0.262201E+01  0.100631E+01 -0.333481E-01  0.000000E+00
  0.274625E+02 -0.262198E+01  0.100631E+01 -0.748312E-01  0.000000E+00
  0.285188E+02 -0.262201E+01  0.100631E+01 -0.102218E+00  0.000000E+00
  0.295750E+02 -0.262200E+01  0.100631E+01 -0.105055E+00  0.000000E+00
  0.306313E+02 -0.262200E+01  0.100631E+01 -0.855409E-01  0.000000E+00
  0.316875E+02 -0.262200E+01  0.100630E+01 -0.525290E-01  0.000000E+00
  0.327438E+02 -0.262201E+01  0.100632E+01 -0.169882E-01  0.000000E+00
  0.338001E+02 -0.262256E+01  0.100649E+01  0.539755E-02  0.000000E+00
  0.348563E+02 -0.262369E+01  0.100677E+01 -0.707421E-02  0.000000E+00
  0.359126E+02 -0.261694E+01  0.100619E+01 -0.353234E-01  0.000000E+00
  0.369688E+02 -0.257678E+01  0.100087E+01 -0.137229E-01  0.000000E+00
  0.380251E+02 -0.249474E+01  0.989196E+00  0.704069E-01  0.000000E+00
  0.390813E+02 -0.241233E+01  0.972789E+00  0.108008E+00  0.000000E+00
  0.401376E+02 -0.236911E+01  0.957533E+00  0.896918E-01  0.000000E+00
  0.411938E+02 -0.236866E+01  0.957583E+00  0.396371E-01  0.000000E+00
  0.422501E+02 -0.236835E+01  0.957525E+00 -0.319776E-01  0.000000E+00
  0.433063E+02 -0.236861E+01  0.957570E+00 -0.969663E-01  0.000000E+00
  0.443626E+02 -0.235832E+01  0.955245E+00 -0.120203E+00  0.000000E+00
  0.454188E+02 -0.231983E+01  0.949197E+00 -0.143558E+00  0.000000E+00
  0.464751E+02 -0.222628E+01  0.936714E+00 -0.129751E+00  0.000000E+00
  0.475313E+02 -0.207875E+01  0.916342E+00 -0.957977E-01  0.000000E+00
  0.485876E+02 -0.189705E+01  0.885051E+00 -0.620997E-01  0.000000E+00
  0.496438E+02 -0.169946E+01  0.848661E+00 -0.285991E-01  0.000000E+00
  0.507001E+02 -0.148676E+01  0.805986E+00  0.496571E-02  0.000000E+00
  0.517563E+02 -0.126626E+01  0.758153E+00  0.385156E-01  0.000000E+00
  0.528126E+02 -0.103238E+01  0.700539E+00  0.720426E-01  0.000000E+00
  0.538688E+02 -0.735407E+00  0.622040E+00  0.101886E+00  0.000000E+00
  0.549251E+02 -0.428881E+00  0.546385E+00  0.119920E+00  0.000000E+00
  0.559813E+02 -0.241773E+00  0.509971E+00  0.138101E+00  0.000000E+00
  0.570376E+02  0.335066E-01  0.445739E+00  0.156466E+00  0.000000E+00
  0.580938E+02  0.281793E+00  0.388422E+00  0.175056E+00  0.000000E+00
  0.591501E+02  0.548689E+00  0.324334E+00  0.173296E+00  0.000000E+00
  0.602063E+02  0.870287E+00  0.240876E+00  0.158860E+00  0.000000E+00
  0.612626E+02  0.125428E+01  0.143081E+00  0.144317E+00  0.000000E+00
  0.623188E+02  0.135076E+01  0.118947E+00  0.129668E+00  0.000000E+00
  0.633751E+02  0.135076E+01  0.118947E+00  0.114923E+00  0.000000E+00
  0.000000E+00  0.000000E+00  0.000000E+00  0.119295E+01  0.000000E+00
  0.105625E+01 -0.817799E+00  0.406969E+00  0.229720E+00  0.000000E+00
  0.211250E+01 -0.111339E+01  0.614981E+00  0.158106E+00  0.000000E+00
  0.316876E+01 -0.138968E+01  0.771399E+00  0.747104E-01  0.000000E+00
  0.422501E+01 -0.163272E+01  0.896297E+00 -0.495418E-02  0.000000E+00
  0.528126E+01 -0.185347E+01  0.101000E+01 -0.110244E+00  0.000000E+00
  0.633751E+01 -0.203500E+01  0.110702E+01 -0.200067E+00  0.000000E+00
  0.739376E+01 -0.216054E+01  0.118099E+01 -0.240424E+00  0.000000E+00
  0.845001E+01 -0.222629E+01  0.123034E+01 -0.222188E+00  0.000000E+00
  0.950627E+01 -0.224634E+01  0.125489E+01 -0.163941E+00  0.000000E+00
  0.105625E+02 -0.224845E+01  0.126041E+01 -0.109416E+00  0.000000E+00
  0.116188E+02 -0.225221E+01  0.126042E+01 -0.719849E-01  0.000000E+00
  0.126750E+02 -0.225254E+01  0.126036E+01 -0.442676E-01  0.000000E+00
  0.137313E+02 -0.225232E+01  0.126041E+01 -0.223852E-01  0.000000E+00
  0.147875E+02 -0.225243E+01  0.126038E+01 -0.114051E-02  0.000000E+00
  0.158438E+02 -0.225233E+01  0.126042E+01  0.251532E-01  0.000000E+00
  0.169000E+02 -0.225175E+01  0.125999E+01  0.668936E-01  0.000000E+00
  0.179563E+02 -0.225063E+01  0.125871E+01  0.117546E+00  0.000000E+00
  0.190125E+02 -0.225105E+01  0.125900E+01  0.154302E+00  0.000000E+00
  0.200688E+02 -0.228110E+01  0.127375E+01  0.188711E+00  0.000000E+00
  0.211250E+02 -0.241416E+01  0.132031E+01  0.162087E+00  0.000000E+00
  0.221813E+02 -0.254922E+01  0.135738E+01  0.315063E-01  0.000000E+00
  0.232375E+02 -0.261338E+01  0.137408E+01 -0.236895E-01  0.000000E+00
  0.242938E+02 -0.262092E+01  0.137876E+01  0.107824E-01  0.000000E+00
  0.253500E+02 -0.262191E+01  0.137883E+01  0.497272E-02  0.000000E+00
  0.264063E+02 -0.262192E+01  0.137888E+01 -0.371594E-01  0.000000E+00
  0.274625E+02 -0.262189E+01  0.137888E+01 -0.821414E-01  0.000000E+00
  0.285188E+02 -0.262192E+01  0.137888E+01 -0.110805E+00  0.000000E+00
  0.295750E+02 -0.262190E+01  0.137888E+01 -0.112310E+00  0.000000E+00
  0.306313E+02 -0.262192E+01  0.137888E+01 -0.910377E-01  0.000000E+00
  0.316875E+02 -0.262192E+01  0.137888E+01 -0.558232E-01  0.000000E+00
  0.327438E+02 -0.262194E+01  0.137890E+01 -0.180389E-01  0.000000E+00
  0.338001E+02 -0.262245E+01  0.137913E+01  0.262026E-02  0.000000E+00
  0.348563E+02 -0.262396E+01  0.137968E+01 -0.124657E-01  0.000000E+00
  0.359126E+02 -0.260286E+01  0.137249E+01 -0.284942E-01  0.000000E+00
  0.369688E+02 -0.254514E+01  0.135737E+01 -0.834315E-02  0.000000E+00
  0.380251E+02 -0.244804E+01  0.133467E+01  0.687199E-01  0.000000E+00
  0.390813E+02 -0.234073E+01  0.130111E+01  0.114092E+00  0.000000E+00
  0.401376E+02 -0.225287E+01  0.126033E+01  0.100408E+00  0.000000E+00
  0.411938E+02 -0.225243E+01  0.126040E+01  0.481525E-01  0.000000E+00
  0.422501E+02 -0.225212E+01  0.126032E+01 -0.266072E-01  0.000000E+00
  0.433063E+02 -0.225240E+01  0.126039E+01 -0.944985E-01  0.000000E+00
  0.443626E+02 -0.224373E+01  0.125793E+01 -0.118988E+00  0.000000E+00
  0.454188E+02 -0.220470E+01  0.124940E+01 -0.143662E+00  0.000000E+00
  0.464751E+02 -0.211057E+01  0.123204E+01 -0.130745E+00  0.000000E+00
  0.475313E+02 -0.196861E+01  0.120660E+01 -0.974990E-01  0.000000E+00
  0.485876E+02 -0.179219E+01  0.116608E+01 -0.646471E-01  0.000000E+00
  0.496438E+02 -0.159781E+01  0.111764E+01 -0.317863E-01  0.000000E+00
  0.507001E+02 -0.138946E+01  0.106110E+01  0.159482E-02  0.000000E+00
  0.517563E+02 -0.117446E+01  0.998005E+00  0.349194E-01  0.000000E+00
  0.528126E+02 -0.948320E+00  0.922504E+00  0.680253E-01  0.000000E+00
  0.538688E+02 -0.662416E+00  0.819867E+00  0.979047E-01  0.000000E+00
  0.549251E+02 -0.366745E+00  0.721032E+00  0.116697E+00  0.000000E+00
  0.559813E+02 -0.186459E+00  0.674173E+00  0.135842E+00  0.000000E+00
  0.570376E+02  0.795823E-01  0.590270E+00  0.155330E+00  0.000000E+00
  0.580938E+02  0.320846E+00  0.514856E+00  0.175066E+00  0.000000E+00
  0.591501E+02  0.582229E+00  0.429494E+00  0.174453E+00  0.000000E+00
  0.602063E+02  0.900286E+00  0.316710E+00  0.161555E+00  0.000000E+00
  0.612626E+02  0.128472E+01  0.182507E+00  0.148645E+00  0.000000E+00
  0.623188E+02  0.138202E+01  0.149072E+00  0.135726E+00  0.000000E+00
  0.633751E+02  0.138202E+01  0.149072E+00  0.122784E+00  0.000000E+00
  0.000000E+00  0.000000E+00  0.000000E+00  0.119295E+01  0.000000E+00
  0.105625E+01 -0.770586E+00  0.500478E+00  0.225761E+00  0.000000E+00
  0.211250E+01 -0.104119E+01  0.755792E+00  0.156290E+00  0.000000E+00
  0.316876E+01 -0.129730E+01  0.946975E+00  0.706495E-01  0.000000E+00
  0.422501E+01 -0.152586E+01  0.110058E+01 -0.105700E-01  0.000000E+00
  0.528126E+01 -0.173472E+01  0.124115E+01 -0.116553E+00  0.000000E+00
  0.633751E+01 -0.190601E+01  0.136106E+01 -0.194173E+00  0.000000E+00
  0.739376E+01 -0.202328E+01  0.145220E+01 -0.242731E+00  0.000000E+00
  0.845001E+01 -0.208300E+01  0.151271E+01 -0.226853E+00  0.000000E+00
  0.950627E+01 -0.209972E+01  0.154263E+01 -0.167159E+00  0.000000E+00
  0.105625E+02 -0.210104E+01  0.154933E+01 -0.112077E+00  0.000000E+00
  0.116188E+02 -0.210494E+01  0.154942E+01 -0.727406E-01  0.000000E+00
  0.126750E+02 -0.210529E+01  0.154935E+01 -0.457848E-01  0.000000E+00
  0.137313E+02 -0.210506E+01  0.154942E+01 -0.219825E-01  0.000000E+00
  0.147875E+02 -0.210517E+01  0.154938E+01 -0.875205E-03  0.000000E+00
  0.158438E+02 -0.210507E+01  0.154942E+01  0.258313E-01  0.000000E+00
  0.169000E+02 -0.210452E+01  0.154890E+01  0.692066E-01  0.000000E+00
  0.179563E+02 -0.210351E+01  0.154729E+01  0.132203E+00  0.000000E+00
  0.190125E+02 -0.210393E+01  0.154767E+01  0.173198E+00  0.000000E+00
  0.200688E+02 -0.217191E+01  0.158869E+01  0.182908E+00  0.000000E+00
  0.211250E+02 -0.233206E+01  0.166471E+01  0.168106E+00  0.000000E+00
  0.221813E+02 -0.248963E+01  0.172577E+01  0.559701E-01  0.000000E+00
  0.232375E+02 -0.258338E+01  0.176453E+01 -0.555977E-02  0.000000E+00
  0.242938E+02 -0.261852E+01  0.178651E+01  0.424134E-03  0.000000E+00
  0.253500E+02 -0.261869E+01  0.178614E+01  0.627264E-02  0.000000E+00
  0.264063E+02 -0.261937E+01  0.178658E+01 -0.441831E-01  0.000000E+00
  0.274625E+02 -0.261952E+01  0.178669E+01 -0.950790E-01  0.000000E+00
  0.285188E+02 -0.261951E+01  0.178667E+01 -0.124712E+00  0.000000E+00
  0.295750E+02 -0.261942E+01  0.178662E+01 -0.124316E+00  0.000000E+00
  0.306313E+02 -0.261941E+01  0.178662E+01 -0.100584E+00  0.000000E+00
  0.316875E+02 -0.261945E+01  0.178663E+01 -0.623348E-01  0.000000E+00
  0.327438E+02 -0.261922E+01  0.178652E+01 -0.223804E-01  0.000000E+00
  0.338001E+02 -0.261730E+01  0.178541E+01 -0.872996E-02  0.000000E+00
  0.348563E+02 -0.259773E+01  0.177395E+01 -0.965177E-02  0.000000E+00
  0.359126E+02 -0.255101E+01  0.174984E+01 -0.912890E-02  0.000000E+00
  0.369688E+02 -0.247828E+01  0.172157E+01 -0.308847E-03  0.000000E+00
  0.380251E+02 -0.236949E+01  0.168539E+01  0.696197E-01  0.000000E+00
  0.390813E+02 -0.223617E+01  0.162684E+01  0.125449E+00  0.000000E+00
  0.401376E+02 -0.210563E+01  0.154932E+01  0.112819E+00  0.000000E+00
  0.411938E+02 -0.210517E+01  0.154940E+01  0.548647E-01  0.000000E+00
  0.422501E+02 -0.210487E+01  0.154931E+01 -0.222763E-01  0.000000E+00
  0.433063E+02 -0.210516E+01  0.154940E+01 -0.923243E-01  0.000000E+00
  0.443626E+02 -0.209810E+01  0.154714E+01 -0.118195E+00  0.000000E+00
  0.454188E+02 -0.206056E+01  0.153694E+01 -0.144287E+00  0.000000E+00
  0.464751E+02 -0.196811E+01  0.151539E+01 -0.132337E+00  0.000000E+00
  0.475313E+02 -0.183012E+01  0.148470E+01 -0.999236E-01  0.000000E+00
  0.485876E+02 -0.165827E+01  0.143479E+01 -0.680950E-01  0.000000E+00
  0.496438E+02 -0.146850E+01  0.137464E+01 -0.360936E-01  0.000000E+00
  0.507001E+02 -0.126587E+01  0.130462E+01 -0.268056E-02  0.000000E+00
  0.517563E+02 -0.105813E+01  0.122700E+01  0.309383E-01  0.000000E+00
  0.528126E+02 -0.841832E+00  0.113478E+01  0.647411E-01  0.000000E+00
  0.538688E+02 -0.569949E+00  0.100978E+01  0.951912E-01  0.000000E+00
  0.549251E+02 -0.288384E+00  0.889756E+00  0.114645E+00  0.000000E+00
  0.559813E+02 -0.116000E+00  0.833553E+00  0.134240E+00  0.000000E+00
  0.570376E+02  0.139503E+00  0.730837E+00  0.153866E+00  0.000000E+00
  0.580938E+02  0.373572E+00  0.637198E+00  0.173605E+00  0.000000E+00
  0.591501E+02  0.630429E+00  0.529118E+00  0.172878E+00  0.000000E+00
  0.602063E+02  0.946040E+00  0.384277E+00  0.159553E+00  0.000000E+00
  0.612626E+02  0.132501E+01  0.213406E+00  0.146226E+00  0.000000E+00
  0.623188E+02  0.141906E+01  0.171920E+00  0.132898E+00  0.000000E+00
  0.633751E+02  0.141906E+01  0.171920E+00  0.119561E+00  0.000000E+00
  0.000000E+00  0.000000E+00  0.000000E+00  0.119295E+01  0.000000E+00
  0.105625E+01 -0.710512E+00  0.586160E+00  0.225321E+00  0.000000E+00
  0.211250E+01 -0.949170E+00  0.884238E+00  0.156779E+00  0.000000E+00
  0.316876E+01 -0.118124E+01  0.110736E+01  0.690598E-01  0.000000E+00
  0.422501E+01 -0.139254E+01  0.128812E+01 -0.126641E-01  0.000000E+00
  0.528126E+01 -0.158746E+01  0.145488E+01 -0.109177E+00  0.000000E+00
  0.633751E+01 -0.174741E+01  0.159754E+01 -0.189729E+00  0.000000E+00
  0.739376E+01 -0.185608E+01  0.170598E+01 -0.245171E+00  0.000000E+00
  0.845001E+01 -0.190988E+01  0.177783E+01 -0.221290E+00  0.000000E+00
  0.950627E+01 -0.192354E+01  0.181325E+01 -0.171254E+00  0.000000E+00
  0.105625E+02 -0.192422E+01  0.182122E+01 -0.113550E+00  0.000000E+00
  0.116188E+02 -0.192826E+01  0.182145E+01 -0.776325E-01  0.000000E+00
  0.126750E+02 -0.192863E+01  0.182137E+01 -0.474163E-01  0.000000E+00
  0.137313E+02 -0.192839E+01  0.182145E+01 -0.221855E-01  0.000000E+00
  0.147875E+02 -0.192851E+01  0.182140E+01 -0.168123E-02  0.000000E+00
  0.158438E+02 -0.192840E+01  0.182145E+01  0.240449E-01  0.000000E+00
  0.169000E+02 -0.192791E+01  0.182083E+01  0.677258E-01  0.000000E+00
  0.179563E+02 -0.192705E+01  0.181892E+01  0.134232E+00  0.000000E+00
  0.190125E+02 -0.192756E+01  0.181946E+01  0.185359E+00  0.000000E+00
  0.200688E+02 -0.202784E+01  0.189455E+01  0.190680E+00  0.000000E+00
  0.211250E+02 -0.220693E+01  0.200397E+01  0.169014E+00  0.000000E+00
  0.221813E+02 -0.238480E+01  0.209557E+01  0.910509E-01  0.000000E+00
  0.232375E+02 -0.250145E+01  0.216096E+01  0.349759E-01  0.000000E+00
  0.242938E+02 -0.255262E+01  0.220028E+01 -0.717831E-03  0.000000E+00
  0.253500E+02 -0.255466E+01  0.220117E+01  0.589725E-02  0.000000E+00
  0.264063E+02 -0.255448E+01  0.220111E+01 -0.576929E-01  0.000000E+00
  0.274625E+02 -0.255435E+01  0.220104E+01 -0.116994E+00  0.000000E+00
  0.285188E+02 -0.255436E+01  0.220103E+01 -0.148039E+00  0.000000E+00
  0.295750E+02 -0.255439E+01  0.220106E+01 -0.144455E+00  0.000000E+00
  0.306313E+02 -0.255434E+01  0.220102E+01 -0.116816E+00  0.000000E+00
  0.316875E+02 -0.255297E+01  0.220001E+01 -0.745669E-01  0.000000E+00
  0.327438E+02 -0.254730E+01  0.219592E+01 -0.292215E-01  0.000000E+00
  0.338001E+02 -0.253152E+01  0.218445E+01 -0.549670E-02  0.000000E+00
  0.348563E+02 -0.249614E+01  0.215854E+01  0.106720E-01  0.000000E+00
  0.359126E+02 -0.243759E+01  0.211962E+01  0.153959E-01  0.000000E+00
  0.369688E+02 -0.235728E+01  0.207853E+01  0.782659E-02  0.000000E+00
  0.380251E+02 -0.223618E+01  0.202405E+01  0.777521E-01  0.000000E+00
  0.390813E+02 -0.208138E+01  0.193478E+01  0.139869E+00  0.000000E+00
  0.401376E+02 -0.192894E+01  0.182131E+01  0.120244E+00  0.000000E+00
  0.411938E+02 -0.192851E+01  0.182143E+01  0.560438E-01  0.000000E+00
  0.422501E+02 -0.192821E+01  0.182131E+01 -0.211133E-01  0.000000E+00
  0.433063E+02 -0.192843E+01  0.182138E+01 -0.911617E-01  0.000000E+00
  0.443626E+02 -0.192083E+01  0.181814E+01 -0.118261E+00  0.000000E+00
  0.454188E+02 -0.188629E+01  0.180748E+01 -0.145543E+00  0.000000E+00
  0.464751E+02 -0.179954E+01  0.178451E+01 -0.134558E+00  0.000000E+00
  0.475313E+02 -0.166440E+01  0.174796E+01 -0.103054E+00  0.000000E+00
  0.485876E+02 -0.149654E+01  0.168805E+01 -0.721753E-01  0.000000E+00
  0.496438E+02 -0.131282E+01  0.161675E+01 -0.405693E-01  0.000000E+00
  0.507001E+02 -0.111733E+01  0.153383E+01 -0.694072E-02  0.000000E+00
  0.517563E+02 -0.918489E+00  0.144261E+01  0.267668E-01  0.000000E+00
  0.528126E+02 -0.714643E+00  0.133560E+01  0.605501E-01  0.000000E+00
  0.538688E+02 -0.459705E+00  0.119061E+01  0.911494E-01  0.000000E+00
  0.549251E+02 -0.193410E+00  0.105067E+01  0.110972E+00  0.000000E+00
  0.559813E+02 -0.295765E-01  0.986161E+00  0.130846E+00  0.000000E+00